Traj/atoms.in (written by ASE) 

256 	 atoms 
1  atom types
0.0                   15.66  xlo xhi
0.0                   15.66  ylo yhi
0.0                   15.66  zlo zhi


Atoms 

     1   1      11.745000000000001                       0                       0
     2   1      13.702500000000002                  1.9575                       0
     3   1      13.702500000000002                       0                  1.9575
     4   1      7.8299999999999992                       0                       0
     5   1      9.7874999999999996                  1.9575                       0
     6   1      11.745000000000001                   3.915                       0
     7   1      13.702500000000002      5.8725000000000005                       0
     8   1      9.7874999999999996                       0                  1.9575
     9   1      11.745000000000001                  1.9575                  1.9575
    10   1      13.702500000000002                   3.915                  1.9575
    11   1      11.745000000000001                       0                   3.915
    12   1      13.702500000000002                  1.9575                   3.915
    13   1      13.702500000000002                       0      5.8725000000000005
    14   1                   3.915                       0                       0
    15   1      5.8725000000000005                  1.9575                       0
    16   1      7.8299999999999992                   3.915                       0
    17   1      9.7874999999999996      5.8725000000000005                       0
    18   1      11.745000000000001      7.8299999999999992                       0
    19   1      13.702500000000002      9.7874999999999996                       0
    20   1      5.8725000000000005                       0                  1.9575
    21   1      7.8299999999999992                  1.9575                  1.9575
    22   1      9.7874999999999996                   3.915                  1.9575
    23   1      11.745000000000001      5.8725000000000005                  1.9575
    24   1      13.702500000000002      7.8299999999999992                  1.9575
    25   1      7.8299999999999992                       0                   3.915
    26   1      9.7874999999999996                  1.9575                   3.915
    27   1      11.745000000000001                   3.915                   3.915
    28   1      13.702500000000002      5.8725000000000005                   3.915
    29   1      9.7874999999999996                       0      5.8725000000000005
    30   1      11.745000000000001                  1.9575      5.8725000000000005
    31   1      13.702500000000002                   3.915      5.8725000000000005
    32   1      11.745000000000001                       0      7.8299999999999992
    33   1      13.702500000000002                  1.9575      7.8299999999999992
    34   1      13.702500000000002                       0      9.7874999999999996
    35   1                       0                       0                       0
    36   1                  1.9575                  1.9575                       0
    37   1                   3.915                   3.915                       0
    38   1      5.8725000000000005      5.8725000000000005                       0
    39   1      7.8299999999999992      7.8299999999999992                       0
    40   1      9.7874999999999996      9.7874999999999996                       0
    41   1      11.745000000000001      11.745000000000001                       0
    42   1      13.702500000000002      13.702500000000002                       0
    43   1                  1.9575                       0                  1.9575
    44   1                   3.915                  1.9575                  1.9575
    45   1      5.8725000000000005                   3.915                  1.9575
    46   1      7.8299999999999992      5.8725000000000005                  1.9575
    47   1      9.7874999999999996      7.8299999999999992                  1.9575
    48   1      11.745000000000001      9.7874999999999996                  1.9575
    49   1      13.702500000000002      11.745000000000001                  1.9575
    50   1                   3.915                       0                   3.915
    51   1      5.8725000000000005                  1.9575                   3.915
    52   1      7.8299999999999992                   3.915                   3.915
    53   1      9.7874999999999996      5.8725000000000005                   3.915
    54   1      11.745000000000001      7.8299999999999992                   3.915
    55   1      13.702500000000002      9.7874999999999996                   3.915
    56   1      5.8725000000000005                       0      5.8725000000000005
    57   1      7.8299999999999992                  1.9575      5.8725000000000005
    58   1      9.7874999999999996                   3.915      5.8725000000000005
    59   1      11.745000000000001      5.8725000000000005      5.8725000000000005
    60   1      13.702500000000002      7.8299999999999992      5.8725000000000005
    61   1      7.8299999999999992                       0      7.8299999999999992
    62   1      9.7874999999999996                  1.9575      7.8299999999999992
    63   1      11.745000000000001                   3.915      7.8299999999999992
    64   1      13.702500000000002      5.8725000000000005      7.8299999999999992
    65   1      9.7874999999999996                       0      9.7874999999999996
    66   1      11.745000000000001                  1.9575      9.7874999999999996
    67   1      13.702500000000002                   3.915      9.7874999999999996
    68   1      11.745000000000001                       0      11.745000000000001
    69   1      13.702500000000002                  1.9575      11.745000000000001
    70   1      13.702500000000002                       0      13.702500000000002
    71   1                       0                   3.915                       0
    72   1                  1.9575      5.8725000000000005                       0
    73   1                   3.915      7.8299999999999992                       0
    74   1      5.8725000000000005      9.7874999999999996                       0
    75   1      7.8299999999999992      11.745000000000001                       0
    76   1      9.7874999999999996      13.702500000000002                       0
    77   1                       0                  1.9575                  1.9575
    78   1                  1.9575                   3.915                  1.9575
    79   1                   3.915      5.8725000000000005                  1.9575
    80   1      5.8725000000000005      7.8299999999999992                  1.9575
    81   1      7.8299999999999992      9.7874999999999996                  1.9575
    82   1      9.7874999999999996      11.745000000000001                  1.9575
    83   1      11.745000000000001      13.702500000000002                  1.9575
    84   1                       0                       0                   3.915
    85   1                  1.9575                  1.9575                   3.915
    86   1                   3.915                   3.915                   3.915
    87   1      5.8725000000000005      5.8725000000000005                   3.915
    88   1      7.8299999999999992      7.8299999999999992                   3.915
    89   1      9.7874999999999996      9.7874999999999996                   3.915
    90   1      11.745000000000001      11.745000000000001                   3.915
    91   1      13.702500000000002      13.702500000000002                   3.915
    92   1                  1.9575                       0      5.8725000000000005
    93   1                   3.915                  1.9575      5.8725000000000005
    94   1      5.8725000000000005                   3.915      5.8725000000000005
    95   1      7.8299999999999992      5.8725000000000005      5.8725000000000005
    96   1      9.7874999999999996      7.8299999999999992      5.8725000000000005
    97   1      11.745000000000001      9.7874999999999996      5.8725000000000005
    98   1      13.702500000000002      11.745000000000001      5.8725000000000005
    99   1                   3.915                       0      7.8299999999999992
   100   1      5.8725000000000005                  1.9575      7.8299999999999992
   101   1      7.8299999999999992                   3.915      7.8299999999999992
   102   1      9.7874999999999996      5.8725000000000005      7.8299999999999992
   103   1      11.745000000000001      7.8299999999999992      7.8299999999999992
   104   1      13.702500000000002      9.7874999999999996      7.8299999999999992
   105   1      5.8725000000000005                       0      9.7874999999999996
   106   1      7.8299999999999992                  1.9575      9.7874999999999996
   107   1      9.7874999999999996                   3.915      9.7874999999999996
   108   1      11.745000000000001      5.8725000000000005      9.7874999999999996
   109   1      13.702500000000002      7.8299999999999992      9.7874999999999996
   110   1      7.8299999999999992                       0      11.745000000000001
   111   1      9.7874999999999996                  1.9575      11.745000000000001
   112   1      11.745000000000001                   3.915      11.745000000000001
   113   1      13.702500000000002      5.8725000000000005      11.745000000000001
   114   1      9.7874999999999996                       0      13.702500000000002
   115   1      11.745000000000001                  1.9575      13.702500000000002
   116   1      13.702500000000002                   3.915      13.702500000000002
   117   1                       0      7.8299999999999992                       0
   118   1                  1.9575      9.7874999999999996                       0
   119   1                   3.915      11.745000000000001                       0
   120   1      5.8725000000000005      13.702500000000002                       0
   121   1                       0      5.8725000000000005                  1.9575
   122   1                  1.9575      7.8299999999999992                  1.9575
   123   1                   3.915      9.7874999999999996                  1.9575
   124   1      5.8725000000000005      11.745000000000001                  1.9575
   125   1      7.8299999999999992      13.702500000000002                  1.9575
   126   1                       0                   3.915                   3.915
   127   1                  1.9575      5.8725000000000005                   3.915
   128   1                   3.915      7.8299999999999992                   3.915
   129   1      5.8725000000000005      9.7874999999999996                   3.915
   130   1      7.8299999999999992      11.745000000000001                   3.915
   131   1      9.7874999999999996      13.702500000000002                   3.915
   132   1                       0                  1.9575      5.8725000000000005
   133   1                  1.9575                   3.915      5.8725000000000005
   134   1                   3.915      5.8725000000000005      5.8725000000000005
   135   1      5.8725000000000005      7.8299999999999992      5.8725000000000005
   136   1      7.8299999999999992      9.7874999999999996      5.8725000000000005
   137   1      9.7874999999999996      11.745000000000001      5.8725000000000005
   138   1      11.745000000000001      13.702500000000002      5.8725000000000005
   139   1                       0                       0      7.8299999999999992
   140   1                  1.9575                  1.9575      7.8299999999999992
   141   1                   3.915                   3.915      7.8299999999999992
   142   1      5.8725000000000005      5.8725000000000005      7.8299999999999992
   143   1      7.8299999999999992      7.8299999999999992      7.8299999999999992
   144   1      9.7874999999999996      9.7874999999999996      7.8299999999999992
   145   1      11.745000000000001      11.745000000000001      7.8299999999999992
   146   1      13.702500000000002      13.702500000000002      7.8299999999999992
   147   1                  1.9575                       0      9.7874999999999996
   148   1                   3.915                  1.9575      9.7874999999999996
   149   1      5.8725000000000005                   3.915      9.7874999999999996
   150   1      7.8299999999999992      5.8725000000000005      9.7874999999999996
   151   1      9.7874999999999996      7.8299999999999992      9.7874999999999996
   152   1      11.745000000000001      9.7874999999999996      9.7874999999999996
   153   1      13.702500000000002      11.745000000000001      9.7874999999999996
   154   1                   3.915                       0      11.745000000000001
   155   1      5.8725000000000005                  1.9575      11.745000000000001
   156   1      7.8299999999999992                   3.915      11.745000000000001
   157   1      9.7874999999999996      5.8725000000000005      11.745000000000001
   158   1      11.745000000000001      7.8299999999999992      11.745000000000001
   159   1      13.702500000000002      9.7874999999999996      11.745000000000001
   160   1      5.8725000000000005                       0      13.702500000000002
   161   1      7.8299999999999992                  1.9575      13.702500000000002
   162   1      9.7874999999999996                   3.915      13.702500000000002
   163   1      11.745000000000001      5.8725000000000005      13.702500000000002
   164   1      13.702500000000002      7.8299999999999992      13.702500000000002
   165   1                       0      11.745000000000001                       0
   166   1                  1.9575      13.702500000000002                       0
   167   1                       0      9.7874999999999996                  1.9575
   168   1                  1.9575      11.745000000000001                  1.9575
   169   1                   3.915      13.702500000000002                  1.9575
   170   1                       0      7.8299999999999992                   3.915
   171   1                  1.9575      9.7874999999999996                   3.915
   172   1                   3.915      11.745000000000001                   3.915
   173   1      5.8725000000000005      13.702500000000002                   3.915
   174   1                       0      5.8725000000000005      5.8725000000000005
   175   1                  1.9575      7.8299999999999992      5.8725000000000005
   176   1                   3.915      9.7874999999999996      5.8725000000000005
   177   1      5.8725000000000005      11.745000000000001      5.8725000000000005
   178   1      7.8299999999999992      13.702500000000002      5.8725000000000005
   179   1                       0                   3.915      7.8299999999999992
   180   1                  1.9575      5.8725000000000005      7.8299999999999992
   181   1                   3.915      7.8299999999999992      7.8299999999999992
   182   1      5.8725000000000005      9.7874999999999996      7.8299999999999992
   183   1      7.8299999999999992      11.745000000000001      7.8299999999999992
   184   1      9.7874999999999996      13.702500000000002      7.8299999999999992
   185   1                       0                  1.9575      9.7874999999999996
   186   1                  1.9575                   3.915      9.7874999999999996
   187   1                   3.915      5.8725000000000005      9.7874999999999996
   188   1      5.8725000000000005      7.8299999999999992      9.7874999999999996
   189   1      7.8299999999999992      9.7874999999999996      9.7874999999999996
   190   1      9.7874999999999996      11.745000000000001      9.7874999999999996
   191   1      11.745000000000001      13.702500000000002      9.7874999999999996
   192   1                       0                       0      11.745000000000001
   193   1                  1.9575                  1.9575      11.745000000000001
   194   1                   3.915                   3.915      11.745000000000001
   195   1      5.8725000000000005      5.8725000000000005      11.745000000000001
   196   1      7.8299999999999992      7.8299999999999992      11.745000000000001
   197   1      9.7874999999999996      9.7874999999999996      11.745000000000001
   198   1      11.745000000000001      11.745000000000001      11.745000000000001
   199   1      13.702500000000002      13.702500000000002      11.745000000000001
   200   1                  1.9575                       0      13.702500000000002
   201   1                   3.915                  1.9575      13.702500000000002
   202   1      5.8725000000000005                   3.915      13.702500000000002
   203   1      7.8299999999999992      5.8725000000000005      13.702500000000002
   204   1      9.7874999999999996      7.8299999999999992      13.702500000000002
   205   1      11.745000000000001      9.7874999999999996      13.702500000000002
   206   1      13.702500000000002      11.745000000000001      13.702500000000002
   207   1                       0      13.702500000000002                  1.9575
   208   1                       0      11.745000000000001                   3.915
   209   1                  1.9575      13.702500000000002                   3.915
   210   1                       0      9.7874999999999996      5.8725000000000005
   211   1                  1.9575      11.745000000000001      5.8725000000000005
   212   1                   3.915      13.702500000000002      5.8725000000000005
   213   1                       0      7.8299999999999992      7.8299999999999992
   214   1                  1.9575      9.7874999999999996      7.8299999999999992
   215   1                   3.915      11.745000000000001      7.8299999999999992
   216   1      5.8725000000000005      13.702500000000002      7.8299999999999992
   217   1                       0      5.8725000000000005      9.7874999999999996
   218   1                  1.9575      7.8299999999999992      9.7874999999999996
   219   1                   3.915      9.7874999999999996      9.7874999999999996
   220   1      5.8725000000000005      11.745000000000001      9.7874999999999996
   221   1      7.8299999999999992      13.702500000000002      9.7874999999999996
   222   1                       0                   3.915      11.745000000000001
   223   1                  1.9575      5.8725000000000005      11.745000000000001
   224   1                   3.915      7.8299999999999992      11.745000000000001
   225   1      5.8725000000000005      9.7874999999999996      11.745000000000001
   226   1      7.8299999999999992      11.745000000000001      11.745000000000001
   227   1      9.7874999999999996      13.702500000000002      11.745000000000001
   228   1                       0                  1.9575      13.702500000000002
   229   1                  1.9575                   3.915      13.702500000000002
   230   1                   3.915      5.8725000000000005      13.702500000000002
   231   1      5.8725000000000005      7.8299999999999992      13.702500000000002
   232   1      7.8299999999999992      9.7874999999999996      13.702500000000002
   233   1      9.7874999999999996      11.745000000000001      13.702500000000002
   234   1      11.745000000000001      13.702500000000002      13.702500000000002
   235   1                       0      13.702500000000002      5.8725000000000005
   236   1                       0      11.745000000000001      7.8299999999999992
   237   1                  1.9575      13.702500000000002      7.8299999999999992
   238   1                       0      9.7874999999999996      9.7874999999999996
   239   1                  1.9575      11.745000000000001      9.7874999999999996
   240   1                   3.915      13.702500000000002      9.7874999999999996
   241   1                       0      7.8299999999999992      11.745000000000001
   242   1                  1.9575      9.7874999999999996      11.745000000000001
   243   1                   3.915      11.745000000000001      11.745000000000001
   244   1      5.8725000000000005      13.702500000000002      11.745000000000001
   245   1                       0      5.8725000000000005      13.702500000000002
   246   1                  1.9575      7.8299999999999992      13.702500000000002
   247   1                   3.915      9.7874999999999996      13.702500000000002
   248   1      5.8725000000000005      11.745000000000001      13.702500000000002
   249   1      7.8299999999999992      13.702500000000002      13.702500000000002
   250   1                       0      13.702500000000002      9.7874999999999996
   251   1                       0      11.745000000000001      11.745000000000001
   252   1                  1.9575      13.702500000000002      11.745000000000001
   253   1                       0      9.7874999999999996      13.702500000000002
   254   1                  1.9575      11.745000000000001      13.702500000000002
   255   1                   3.915      13.702500000000002      13.702500000000002
   256   1                       0      13.702500000000002      13.702500000000002


Velocities 

     1                       0                       0                       0
     2                       0                       0                       0
     3                       0                       0                       0
     4                       0                       0                       0
     5                       0                       0                       0
     6                       0                       0                       0
     7                       0                       0                       0
     8                       0                       0                       0
     9                       0                       0                       0
    10                       0                       0                       0
    11                       0                       0                       0
    12                       0                       0                       0
    13                       0                       0                       0
    14                       0                       0                       0
    15                       0                       0                       0
    16                       0                       0                       0
    17                       0                       0                       0
    18                       0                       0                       0
    19                       0                       0                       0
    20                       0                       0                       0
    21                       0                       0                       0
    22                       0                       0                       0
    23                       0                       0                       0
    24                       0                       0                       0
    25                       0                       0                       0
    26                       0                       0                       0
    27                       0                       0                       0
    28                       0                       0                       0
    29                       0                       0                       0
    30                       0                       0                       0
    31                       0                       0                       0
    32                       0                       0                       0
    33                       0                       0                       0
    34                       0                       0                       0
    35                       0                       0                       0
    36                       0                       0                       0
    37                       0                       0                       0
    38                       0                       0                       0
    39                       0                       0                       0
    40                       0                       0                       0
    41                       0                       0                       0
    42                       0                       0                       0
    43                       0                       0                       0
    44                       0                       0                       0
    45                       0                       0                       0
    46                       0                       0                       0
    47                       0                       0                       0
    48                       0                       0                       0
    49                       0                       0                       0
    50                       0                       0                       0
    51                       0                       0                       0
    52                       0                       0                       0
    53                       0                       0                       0
    54                       0                       0                       0
    55                       0                       0                       0
    56                       0                       0                       0
    57                       0                       0                       0
    58                       0                       0                       0
    59                       0                       0                       0
    60                       0                       0                       0
    61                       0                       0                       0
    62                       0                       0                       0
    63                       0                       0                       0
    64                       0                       0                       0
    65                       0                       0                       0
    66                       0                       0                       0
    67                       0                       0                       0
    68                       0                       0                       0
    69                       0                       0                       0
    70                       0                       0                       0
    71                       0                       0                       0
    72                       0                       0                       0
    73                       0                       0                       0
    74                       0                       0                       0
    75                       0                       0                       0
    76                       0                       0                       0
    77                       0                       0                       0
    78                       0                       0                       0
    79                       0                       0                       0
    80                       0                       0                       0
    81                       0                       0                       0
    82                       0                       0                       0
    83                       0                       0                       0
    84                       0                       0                       0
    85                       0                       0                       0
    86                       0                       0                       0
    87                       0                       0                       0
    88                       0                       0                       0
    89                       0                       0                       0
    90                       0                       0                       0
    91                       0                       0                       0
    92                       0                       0                       0
    93                       0                       0                       0
    94                       0                       0                       0
    95                       0                       0                       0
    96                       0                       0                       0
    97                       0                       0                       0
    98                       0                       0                       0
    99                       0                       0                       0
   100                       0                       0                       0
   101                       0                       0                       0
   102                       0                       0                       0
   103                       0                       0                       0
   104                       0                       0                       0
   105                       0                       0                       0
   106                       0                       0                       0
   107                       0                       0                       0
   108                       0                       0                       0